<?xml version="1.0" encoding="utf-8"?>
<psml version="0" creator="wireshark/2.6.6">
<structure>
<section>No.</section>
<section>Time</section>
<section>Source</section>
<section>Destination</section>
<section>Protocol</section>
<section>Length</section>
<section>Info</section>
</structure>

